FoamFile { version 2.0; format ascii; class volScalarField; object p; }
dimensions [0 2 -2 0 0 0 0];
internalField nonuniform List<scalar> 6400(
-0.498458666866564
-0.4923218135327011
-0.48019921656110365
-0.46238937452180506
-0.4393308248332897
-0.4115913455158279
-0.3798539746122692
-0.3449001915245544
-0.30759067439725835
-0.2688441073652432
-0.22961455950132076
-0.19086799246930566
-0.15355847534200956
-0.11860469225429479
-0.0868673213507361
-0.05912784203327426
-0.036069292344758946
-0.018259450305460306
-0.006136853333862852
-0.0
-0.0
-0.006136853333862824
-0.01825945030546028
-0.03606929234475892
-0.05912784203327423
-0.08686732135073597
-0.11860469225429485
-0.1535584753420094
-0.1908679924693057
-0.2296145595013206
-0.2688441073652433
-0.3075906743972582
-0.3449001915245545
-0.3798539746122691
-0.411591345515828
-0.4393308248332896
-0.46238937452180506
-0.48019921656110365
-0.49232181353270116
-0.498458666866564
-0.498458666866564
-0.4923218135327012
-0.48019921656110365
-0.4623893745218052
-0.43933082483328967
-0.41159134551582804
-0.37985397461226916
-0.3449001915245546
-0.3075906743972583
-0.2688441073652434
-0.22961455950132073
-0.19086799246930583
-0.1535584753420095
-0.11860469225429493
-0.08686732135073605
-0.0591278420332744
-0.03606929234475892
-0.01825945030546039
-0.006136853333862824
-0.0
-0.0
-0.006136853333862796
-0.018259450305460306
-0.036069292344758835
-0.05912784203327426
-0.08686732135073591
-0.11860469225429479
-0.15355847534200934
-0.19086799246930564
-0.22961455950132054
-0.2688441073652432
-0.3075906743972581
-0.3449001915245544
-0.379853974612269
-0.4115913455158279
-0.43933082483328956
-0.46238937452180506
-0.4801992165611036
-0.4923218135327011
-0.4984586668665639
-0.4923218135327011
-0.4861849601988383
-0.4740623632272408
-0.4562525211879422
-0.43319397149942684
-0.40545449218196505
-0.3737171212784064
-0.3387633381906916
-0.3014538210633955
-0.2627072540313804
-0.22347770616745793
-0.1847311391354428
-0.1474216220081467
-0.11246783892043194
-0.08073046801687325
-0.05299098869941141
-0.029932439010896095
-0.012122596971597455
-0.0
0.006136853333862852
0.006136853333862852
2.7755575615628914e-17
-0.012122596971597427
-0.029932439010896067
-0.05299098869941138
-0.08073046801687311
-0.112467838920432
-0.14742162200814657
-0.18473113913544287
-0.22347770616745774
-0.26270725403138045
-0.30145382106339536
-0.33876333819069165
-0.37371712127840623
-0.4054544921819651
-0.43319397149942673
-0.45625252118794224
-0.47406236322724077
-0.4861849601988383
-0.4923218135327011
-0.4923218135327011
-0.48618496019883833
-0.4740623632272408
-0.4562525211879423
-0.43319397149942684
-0.40545449218196516
-0.3737171212784063
-0.33876333819069177
-0.30145382106339547
-0.26270725403138057
-0.22347770616745788
-0.18473113913544298
-0.14742162200814668
-0.11246783892043208
-0.0807304680168732
-0.052990988699411545
-0.029932439010896067
-0.012122596971597538
2.7755575615628914e-17
0.006136853333862852
0.006136853333862852
5.551115123125783e-17
-0.012122596971597455
-0.029932439010895984
-0.05299098869941141
-0.08073046801687306
-0.11246783892043194
-0.1474216220081465
-0.18473113913544278
-0.22347770616745768
-0.2627072540313804
-0.3014538210633953
-0.3387633381906916
-0.3737171212784062
-0.40545449218196505
-0.43319397149942673
-0.4562525211879422
-0.4740623632272407
-0.4861849601988383
-0.4923218135327011
-0.48019921656110365
-0.4740623632272408
-0.46193976625564337
-0.44412992421634473
-0.4210713745278294
-0.3933318952103676
-0.36159452430680894
-0.32664074121909414
-0.28933122409179807
-0.25058465705978294
-0.21135510919586048
-0.17260854216384536
-0.13529902503654925
-0.10034524194883448
-0.0686078710452758
-0.04086839172781395
-0.01780984203929864
-0.0
0.012122596971597455
0.018259450305460306
0.018259450305460306
0.012122596971597482
2.7755575615628914e-17
-0.017809842039298612
-0.040868391727813924
-0.06860787104527566
-0.10034524194883454
-0.13529902503654911
-0.1726085421638454
-0.21135510919586029
-0.250584657059783
-0.2893312240917979
-0.3266407412190942
-0.3615945243068088
-0.39333189521036765
-0.4210713745278293
-0.4441299242163448
-0.4619397662556433
-0.4740623632272408
-0.48019921656110365
-0.48019921656110365
-0.4740623632272409
-0.46193976625564337
-0.44412992421634484
-0.4210713745278294
-0.3933318952103677
-0.36159452430680883
-0.3266407412190943
-0.289331224091798
-0.2505846570597831
-0.21135510919586042
-0.17260854216384552
-0.13529902503654923
-0.10034524194883462
-0.06860787104527574
-0.04086839172781409
-0.017809842039298612
-8.326672684688674e-17
0.012122596971597482
0.018259450305460306
0.018259450305460306
0.01212259697159751
-0.0
-0.01780984203929853
-0.04086839172781395
-0.0686078710452756
-0.10034524194883448
-0.13529902503654906
-0.17260854216384533
-0.21135510919586023
-0.25058465705978294
-0.28933122409179785
-0.32664074121909414
-0.3615945243068087
-0.3933318952103676
-0.4210713745278293
-0.44412992421634473
-0.46193976625564326
-0.4740623632272408
-0.48019921656110365
-0.46238937452180506
-0.4562525211879422
-0.44412992421634473
-0.4263200821770461
-0.4032615324885308
-0.37552205317106896
-0.34378468226751024
-0.3088308991797955
-0.2715213820524994
-0.2327748150204843
-0.19354526715656184
-0.15479870012454672
-0.11748918299725061
-0.08253539990953584
-0.05079802900597716
-0.023058549688515312
-0.0
0.01780984203929864
0.029932439010896095
0.036069292344758946
0.036069292344758946
0.029932439010896122
0.017809842039298668
2.7755575615628914e-17
-0.023058549688515284
-0.05079802900597702
-0.0825353999095359
-0.11748918299725046
-0.15479870012454677
-0.19354526715656165
-0.23277481502048436
-0.27152138205249926
-0.30883089917979556
-0.34378468226751013
-0.375522053171069
-0.4032615324885307
-0.4263200821770461
-0.4441299242163447
-0.45625252118794224
-0.46238937452180506
-0.46238937452180506
-0.45625252118794224
-0.44412992421634473
-0.4263200821770462
-0.40326153248853075
-0.3755220531710691
-0.34378468226751024
-0.30883089917979567
-0.27152138205249937
-0.23277481502048447
-0.19354526715656178
-0.15479870012454688
-0.11748918299725057
-0.08253539990953598
-0.0507980290059771
-0.02305854968851545
2.7755575615628914e-17
0.017809842039298557
0.029932439010896122
0.036069292344758946
0.036069292344758946
0.02993243901089615
0.01780984203929864
1.1102230246251565e-16
-0.023058549688515312
-0.05079802900597696
-0.08253539990953584
-0.1174891829972504
-0.1547987001245467
-0.1935452671565616
-0.23277481502048428
-0.2715213820524992
-0.3088308991797955
-0.3437846822675101
-0.37552205317106896
-0.40326153248853064
-0.4263200821770461
-0.4441299242163447
-0.4562525211879422
-0.462389374521805
-0.4393308248332897
-0.43319397149942684
-0.4210713745278294
-0.4032615324885308
-0.38020298280001547
-0.3524635034825536
-0.32072613257899496
-0.28577234949128016
-0.2484628323639841
-0.209716265331969
-0.1704867174680465
-0.1317401504360314
-0.0944306333087353
-0.05947685022102053
-0.027739479317461846
-0.0
0.023058549688515312
0.04086839172781395
0.05299098869941141
0.05912784203327426
0.05912784203327426
0.052990988699411434
0.04086839172781398
0.02305854968851534
2.7755575615628914e-17
-0.027739479317461707
-0.05947685022102059
-0.09443063330873515
-0.13174015043603143
-0.17048671746804633
-0.20971626533196902
-0.24846283236398392
-0.2857723494912802
-0.32072613257899485
-0.35246350348255373
-0.38020298280001535
-0.4032615324885308
-0.4210713745278294
-0.4331939714994269
-0.4393308248332897
-0.4393308248332897
-0.43319397149942696
-0.4210713745278294
-0.4032615324885309
-0.3802029828000154
-0.3524635034825538
-0.3207261325789949
-0.28577234949128033
-0.24846283236398406
-0.20971626533196916
-0.17048671746804647
-0.13174015043603157
-0.09443063330873526
-0.05947685022102067
-0.02773947931746179
-1.3877787807814457e-16
0.02305854968851534
0.04086839172781387
0.052990988699411434
0.05912784203327426
0.05912784203327426
0.05299098869941146
0.04086839172781395
0.023058549688515423
-0.0
-0.02773947931746165
-0.05947685022102053
-0.09443063330873509
-0.13174015043603138
-0.17048671746804628
-0.20971626533196897
-0.24846283236398387
-0.28577234949128016
-0.32072613257899474
-0.3524635034825536
-0.3802029828000153
-0.4032615324885308
-0.42107137452782933
-0.43319397149942684
-0.43933082483328967
-0.4115913455158279
-0.40545449218196505
-0.3933318952103676
-0.37552205317106896
-0.3524635034825536
-0.32472402416509183
-0.29298665326153317
-0.2580328701738184
-0.2207233530465223
-0.18197678601450717
-0.1427472381505847
-0.10400067111856959
-0.06669115399127348
-0.031737370903558715
-2.7755575615628914e-17
0.027739479317461818
0.05079802900597713
0.06860787104527577
0.08073046801687322
0.08686732135073608
0.08686732135073608
0.08073046801687325
0.0686078710452758
0.05079802900597716
0.027739479317461846
1.1102230246251565e-16
-0.03173737090355877
-0.06669115399127333
-0.10400067111856963
-0.14274723815058452
-0.18197678601450723
-0.2207233530465221
-0.25803287017381843
-0.292986653261533
-0.3247240241650919
-0.3524635034825535
-0.375522053171069
-0.39333189521036754
-0.40545449218196505
-0.4115913455158279
-0.4115913455158279
-0.4054544921819651
-0.3933318952103676
-0.37552205317106907
-0.3524635034825536
-0.32472402416509194
-0.29298665326153306
-0.25803287017381854
-0.22072335304652224
-0.18197678601450734
-0.14274723815058465
-0.10400067111856975
-0.06669115399127344
-0.031737370903558854
2.7755575615628914e-17
0.02773947931746168
0.05079802900597716
0.06860787104527569
0.08073046801687325
0.08686732135073608
0.08686732135073608
0.08073046801687328
0.06860787104527577
0.05079802900597724
0.027739479317461818
1.6653345369377348e-16
-0.031737370903558715
-0.06669115399127327
-0.10400067111856956
-0.14274723815058446
-0.18197678601450715
-0.22072335304652205
-0.2580328701738184
-0.29298665326153295
-0.32472402416509183
-0.3524635034825535
-0.37552205317106896
-0.3933318952103675
-0.40545449218196505
-0.4115913455158279
-0.3798539746122692
-0.3737171212784064
-0.36159452430680894
-0.34378468226751024
-0.32072613257899496
-0.29298665326153317
-0.26124928235797445
-0.2262954992702597
-0.18898598214296358
-0.1502394151109485
-0.11100986724702601
-0.0722633002150109
-0.034953783087714796
-2.7755575615628914e-17
0.03173737090355866
0.059476850221020505
0.08253539990953582
0.10034524194883446
0.11246783892043191
0.11860469225429476
0.11860469225429476
0.11246783892043194
0.10034524194883448
0.08253539990953584
0.05947685022102053
0.0317373709035588
-8.326672684688674e-17
-0.03495378308771464
-0.07226330021501094
-0.11100986724702583
-0.15023941511094852
-0.18898598214296342
-0.22629549927025971
-0.2612492823579743
-0.29298665326153317
-0.32072613257899485
-0.3437846822675103
-0.36159452430680883
-0.3737171212784064
-0.3798539746122692
-0.3798539746122692
-0.3737171212784064
-0.36159452430680894
-0.34378468226751036
-0.32072613257899496
-0.2929866532615333
-0.2612492823579744
-0.22629549927025983
-0.18898598214296355
-0.15023941511094865
-0.11100986724702595
-0.07226330021501107
-0.034953783087714754
-1.6653345369377348e-16
0.031737370903558715
0.059476850221020366
0.08253539990953584
0.10034524194883437
0.11246783892043194
0.11860469225429476
0.11860469225429476
0.11246783892043197
0.10034524194883446
0.08253539990953593
0.059476850221020505
0.031737370903558854
-2.7755575615628914e-17
-0.03495378308771459
-0.07226330021501087
-0.11100986724702577
-0.15023941511094846
-0.18898598214296336
-0.22629549927025966
-0.2612492823579743
-0.29298665326153317
-0.32072613257899485
-0.34378468226751024
-0.36159452430680883
-0.3737171212784064
-0.3798539746122692
-0.3449001915245544
-0.3387633381906916
-0.32664074121909414
-0.3088308991797955
-0.28577234949128016
-0.2580328701738184
-0.2262954992702597
-0.19134171618254492
-0.15403219905524884
-0.1152856320232337
-0.07605608415931124
-0.037309517127296125
-2.7755575615628914e-17
0.03495378308771474
0.06669115399127343
0.09443063330873527
0.11748918299725059
0.13529902503654923
0.14742162200814668
0.15355847534200953
0.15355847534200953
0.1474216220081467
0.13529902503654925
0.11748918299725061
0.0944306333087353
0.06669115399127357
0.034953783087714685
1.249000902703301e-16
-0.037309517127296174
-0.07605608415931106
-0.11528563202323376
-0.15403219905524865
-0.19134171618254497
-0.22629549927025955
-0.25803287017381843
-0.28577234949128005
-0.30883089917979556
-0.3266407412190941
-0.3387633381906916
-0.3449001915245544
-0.3449001915245544
-0.33876333819069165
-0.32664074121909414
-0.3088308991797956
-0.28577234949128016
-0.2580328701738185
-0.22629549927025963
-0.19134171618254509
-0.1540321990552488
-0.11528563202323389
-0.07605608415931119
-0.03730951712729629
1.3877787807814457e-17
0.0349537830877146
0.06669115399127348
0.09443063330873513
0.11748918299725061
0.13529902503654914
0.1474216220081467
0.15355847534200953
0.15355847534200953
0.14742162200814674
0.13529902503654923
0.1174891829972507
0.09443063330873527
0.06669115399127362
0.03495378308771474
1.8041124150158794e-16
-0.03730951712729611
-0.076056084159311
-0.11528563202323369
-0.1540321990552486
-0.19134171618254492
-0.2262954992702595
-0.2580328701738184
-0.28577234949128005
-0.3088308991797955
-0.32664074121909403
-0.3387633381906916
-0.3449001915245544
-0.30759067439725835
-0.3014538210633955
-0.28933122409179807
-0.2715213820524994
-0.2484628323639841
-0.2207233530465223
-0.18898598214296358
-0.15403219905524884
-0.11672268192795274
-0.07797611489593761
-0.03874656703201515
-3.469446951953614e-17
0.03730951712729606
0.07226330021501083
0.10400067111856952
0.13174015043603138
0.15479870012454666
0.1726085421638453
0.18473113913544276
0.19086799246930564
0.19086799246930564
0.1847311391354428
0.17260854216384536
0.15479870012454672
0.13174015043603138
0.10400067111856966
0.07226330021501078
0.037309517127296216
-8.326672684688674e-17
-0.03874656703201498
-0.07797611489593767
-0.11672268192795257
-0.15403219905524887
-0.18898598214296347
-0.22072335304652235
-0.24846283236398398
-0.2715213820524994
-0.289331224091798
-0.3014538210633955
-0.30759067439725835
-0.30759067439725835
-0.3014538210633956
-0.28933122409179807
-0.27152138205249954
-0.2484628323639841
-0.2207233530465224
-0.18898598214296353
-0.15403219905524898
-0.11672268192795268
-0.0779761148959378
-0.038746567032015095
-2.0122792321330962e-16
0.037309517127296105
0.07226330021501069
0.10400067111856957
0.1317401504360312
0.15479870012454672
0.17260854216384525
0.1847311391354428
0.19086799246930564
0.19086799246930564
0.1847311391354428
0.1726085421638453
0.15479870012454677
0.13174015043603138
0.10400067111856971
0.07226330021501083
0.03730951712729627
-2.0816681711721685e-17
-0.038746567032014914
-0.07797611489593761
-0.11672268192795252
-0.15403219905524881
-0.18898598214296342
-0.2207233530465223
-0.24846283236398398
-0.2715213820524994
-0.28933122409179796
-0.3014538210633955
-0.30759067439725835
-0.2688441073652432
-0.2627072540313804
-0.25058465705978294
-0.2327748150204843
-0.209716265331969
-0.18197678601450717
-0.1502394151109485
-0.1152856320232337
-0.07797611489593761
-0.0392295478639225
-3.122502256758253e-17
0.03874656703201508
0.07605608415931119
0.11100986724702595
0.14274723815058463
0.17048671746804647
0.19354526715656178
0.21135510919586042
0.22347770616745788
0.22961455950132073
0.22961455950132073
0.2234777061674579
0.21135510919586045
0.1935452671565618
0.1704867174680465
0.14274723815058477
0.1110098672470259
0.07605608415931134
0.03874656703201504
1.4224732503009818e-16
-0.03922954786392255
-0.07797611489593745
-0.11528563202323375
-0.15023941511094835
-0.18197678601450723
-0.20971626533196888
-0.23277481502048433
-0.2505846570597829
-0.2627072540313804
-0.2688441073652432
-0.2688441073652432
-0.26270725403138045
-0.25058465705978294
-0.23277481502048442
-0.20971626533196897
-0.1819767860145073
-0.15023941511094843
-0.11528563202323386
-0.07797611489593757
-0.03922954786392267
2.0816681711721685e-17
0.038746567032014914
0.07605608415931123
0.11100986724702581
0.14274723815058468
0.17048671746804633
0.1935452671565618
0.21135510919586034
0.2234777061674579
0.22961455950132073
0.22961455950132073
0.22347770616745793
0.21135510919586042
0.1935452671565619
0.17048671746804647
0.14274723815058482
0.11100986724702595
0.0760560841593114
0.038746567032015095
2.0469737016526324e-16
-0.03922954786392249
-0.07797611489593739
-0.11528563202323369
-0.1502394151109483
-0.18197678601450717
-0.20971626533196885
-0.2327748150204843
-0.25058465705978283
-0.2627072540313804
-0.2688441073652432
-0.22961455950132076
-0.22347770616745793
-0.21135510919586048
-0.19354526715656184
-0.1704867174680465
-0.1427472381505847
-0.11100986724702601
-0.07605608415931124
-0.03874656703201515
-3.122502256758253e-17
0.03922954786392244
0.07797611489593756
0.11528563202323365
0.1502394151109484
0.18197678601450712
0.20971626533196897
0.23277481502048425
0.2505846570597829
0.26270725403138034
0.2688441073652432
0.2688441073652432
0.2627072540313804
0.25058465705978294
0.2327748150204843
0.20971626533196897
0.18197678601450723
0.15023941511094835
0.1152856320232338
0.0779761148959375
0.03922954786392261
-8.326672684688674e-17
-0.03874656703201498
-0.07605608415931128
-0.11100986724702587
-0.14274723815058477
-0.1704867174680464
-0.19354526715656184
-0.21135510919586042
-0.22347770616745793
-0.22961455950132076
-0.22961455950132076
-0.223477706167458
-0.21135510919586048
-0.19354526715656195
-0.1704867174680465
-0.14274723815058482
-0.11100986724702595
-0.0760560841593114
-0.0387465670320151
-2.0469737016526324e-16
0.03922954786392249
0.07797611489593739
0.11528563202323369
0.1502394151109483
0.18197678601450717
0.2097162653319688
0.2327748150204843
0.25058465705978283
0.2627072540313804
0.2688441073652432
0.2688441073652432
0.2627072540313804
0.2505846570597829
0.23277481502048436
0.20971626533196897
0.18197678601450729
0.1502394151109484
0.11528563202323386
0.07797611489593756
0.03922954786392267
-2.0816681711721685e-17
-0.03874656703201492
-0.07605608415931123
-0.11100986724702581
-0.1427472381505847
-0.1704867174680464
-0.19354526715656184
-0.21135510919586037
-0.22347770616745793
-0.22961455950132076
-0.19086799246930566
-0.1847311391354428
-0.17260854216384536
-0.15479870012454672
-0.1317401504360314
-0.10400067111856959
-0.0722633002150109
-0.037309517127296125
-3.469446951953614e-17
0.03874656703201508
0.07797611489593756
0.11672268192795267
0.15403219905524876
0.18898598214296353
0.2207233530465222
0.24846283236398406
0.27152138205249937
0.289331224091798
0.30145382106339547
0.30759067439725835
0.30759067439725835
0.3014538210633955
0.28933122409179807
0.2715213820524994
0.2484628323639841
0.22072335304652235
0.18898598214296347
0.15403219905524893
0.11672268192795263
0.07797611489593773
0.03874656703201503
1.3877787807814457e-16
-0.03730951712729617
-0.07226330021501076
-0.10400067111856964
-0.1317401504360313
-0.15479870012454675
-0.1726085421638453
-0.18473113913544284
-0.19086799246930566
-0.19086799246930566
-0.18473113913544287
-0.17260854216384536
-0.15479870012454683
-0.13174015043603138
-0.10400067111856973
-0.07226330021501084
-0.03730951712729628
1.3877787807814457e-17
0.038746567032014914
0.0779761148959376
0.1167226819279525
0.15403219905524881
0.1889859821429634
0.22072335304652227
0.24846283236398392
0.2715213820524994
0.28933122409179796
0.3014538210633955
0.30759067439725835
0.30759067439725835
0.3014538210633955
0.289331224091798
0.2715213820524995
0.24846283236398406
0.2207233530465224
0.18898598214296353
0.15403219905524898
0.11672268192795268
0.07797611489593778
0.038746567032015095
1.942890293094024e-16
-0.03730951712729611
-0.0722633002150107
-0.10400067111856959
-0.13174015043603127
-0.15479870012454672
-0.17260854216384527
-0.1847311391354428
-0.19086799246930564
-0.15355847534200956
-0.1474216220081467
-0.13529902503654925
-0.11748918299725061
-0.0944306333087353
-0.06669115399127348
-0.034953783087714796
-2.7755575615628914e-17
0.03730951712729606
0.07605608415931119
0.11528563202323365
0.15403219905524876
0.19134171618254486
0.22629549927025963
0.2580328701738183
0.28577234949128016
0.30883089917979545
0.32664074121909414
0.3387633381906916
0.3449001915245544
0.3449001915245544
0.3387633381906916
0.32664074121909414
0.3088308991797955
0.28577234949128016
0.2580328701738185
0.22629549927025958
0.19134171618254503
0.15403219905524873
0.11528563202323383
0.07605608415931113
0.037309517127296236
-6.938893903907228e-17
-0.03495378308771466
-0.06669115399127354
-0.09443063330873519
-0.11748918299725064
-0.1352990250365492
-0.14742162200814674
-0.15355847534200956
-0.15355847534200956
-0.14742162200814676
-0.13529902503654925
-0.11748918299725072
-0.09443063330873527
-0.06669115399127362
-0.03495378308771474
-1.8041124150158794e-16
0.03730951712729611
0.076056084159311
0.1152856320232337
0.1540321990552486
0.19134171618254492
0.2262954992702595
0.2580328701738184
0.28577234949128005
0.3088308991797955
0.32664074121909403
0.3387633381906916
0.3449001915245544
0.3449001915245544
0.3387633381906916
0.32664074121909414
0.30883089917979556
0.28577234949128016
0.2580328701738185
0.22629549927025963
0.19134171618254509
0.1540321990552488
0.11528563202323389
0.0760560841593112
0.03730951712729629
-1.3877787807814457e-17
-0.0349537830877146
-0.06669115399127348
-0.09443063330873516
-0.11748918299725061
-0.13529902503654917
-0.1474216220081467
-0.15355847534200953
-0.11860469225429479
-0.11246783892043194
-0.10034524194883448
-0.08253539990953584
-0.05947685022102053
-0.031737370903558715
-2.7755575615628914e-17
0.03495378308771474
0.07226330021501083
0.11100986724702595
0.1502394151109484
0.18898598214296353
0.22629549927025963
0.2612492823579744
0.29298665326153306
0.32072613257899496
0.34378468226751024
0.3615945243068089
0.37371712127840634
0.3798539746122692
0.3798539746122692
0.3737171212784064
0.36159452430680894
0.34378468226751024
0.32072613257899496
0.2929866532615332
0.26124928235797434
0.22629549927025977
0.18898598214296347
0.1502394151109486
0.1110098672470259
0.07226330021501101
0.0349537830877147
1.1102230246251565e-16
-0.03173737090355877
-0.05947685022102042
-0.08253539990953587
-0.10034524194883443
-0.11246783892043197
-0.11860469225429479
-0.11860469225429479
-0.112467838920432
-0.10034524194883448
-0.08253539990953596
-0.059476850221020505
-0.031737370903558854
2.7755575615628914e-17
0.03495378308771459
0.07226330021501087
0.11100986724702577
0.15023941511094846
0.18898598214296336
0.22629549927025966
0.2612492823579743
0.29298665326153317
0.3207261325789948
0.34378468226751024
0.36159452430680883
0.3737171212784064
0.3798539746122692
0.3798539746122692
0.3737171212784064
0.3615945243068089
0.34378468226751036
0.32072613257899496
0.2929866532615333
0.2612492823579744
0.22629549927025983
0.18898598214296355
0.15023941511094865
0.11100986724702597
0.07226330021501107
0.034953783087714754
1.6653345369377348e-16
-0.031737370903558715
-0.059476850221020394
-0.08253539990953584
-0.1003452419488344
-0.11246783892043194
-0.11860469225429476
-0.0868673213507361
-0.08073046801687325
-0.0686078710452758
-0.05079802900597716
-0.027739479317461846
-2.7755575615628914e-17
0.03173737090355866
0.06669115399127343
0.10400067111856952
0.14274723815058463
0.18197678601450712
0.2207233530465222
0.2580328701738183
0.29298665326153306
0.3247240241650918
0.3524635034825536
0.3755220531710689
0.3933318952103676
0.40545449218196505
0.4115913455158279
0.4115913455158279
0.40545449218196505
0.3933318952103676
0.37552205317106896
0.3524635034825536
0.32472402416509194
0.29298665326153306
0.2580328701738185
0.22072335304652219
0.18197678601450729
0.1427472381505846
0.1040006711185697
0.06669115399127339
0.0317373709035588
-8.326672684688674e-17
-0.027739479317461735
-0.050798029005977186
-0.06860787104527574
-0.08073046801687328
-0.0868673213507361
-0.0868673213507361
-0.08073046801687331
-0.0686078710452758
-0.05079802900597727
-0.027739479317461818
-1.6653345369377348e-16
0.031737370903558715
0.06669115399127327
0.10400067111856956
0.14274723815058446
0.18197678601450715
0.22072335304652205
0.2580328701738184
0.29298665326153295
0.32472402416509183
0.3524635034825535
0.37552205317106896
0.3933318952103675
0.40545449218196505
0.4115913455158279
0.4115913455158279
0.40545449218196505
0.3933318952103676
0.375522053171069
0.3524635034825536
0.32472402416509194
0.29298665326153306
0.25803287017381854
0.22072335304652224
0.18197678601450734
0.14274723815058465
0.10400067111856975
0.06669115399127344
0.031737370903558854
-2.7755575615628914e-17
-0.027739479317461707
-0.05079802900597716
-0.06860787104527571
-0.08073046801687325
-0.08686732135073608
-0.05912784203327426
-0.05299098869941141
-0.04086839172781395
-0.023058549688515312
-0.0
0.027739479317461818
0.059476850221020505
0.09443063330873527
0.13174015043603138
0.17048671746804647
0.20971626533196897
0.24846283236398406
0.28577234949128016
0.32072613257899496
0.3524635034825536
0.38020298280001547
0.4032615324885308
0.4210713745278294
0.43319397149942684
0.4393308248332897
0.4393308248332897
0.4331939714994269
0.42107137452782945
0.4032615324885308
0.3802029828000155
0.35246350348255373
0.32072613257899485
0.28577234949128033
0.24846283236398403
0.20971626533196913
0.17048671746804644
0.13174015043603154
0.09443063330873523
0.059476850221020644
0.027739479317461763
1.1102230246251565e-16
-0.02305854968851534
-0.040868391727813896
-0.052990988699411434
-0.05912784203327426
-0.05912784203327426
-0.05299098869941146
-0.04086839172781395
-0.023058549688515423
2.7755575615628914e-17
0.02773947931746168
0.05947685022102056
0.09443063330873512
0.1317401504360314
0.1704867174680463
0.209716265331969
0.2484628323639839
0.2857723494912802
0.3207261325789948
0.3524635034825537
0.3802029828000153
0.4032615324885308
0.42107137452782933
0.4331939714994269
0.4393308248332897
0.4393308248332897
0.43319397149942696
0.4210713745278294
0.4032615324885309
0.38020298280001547
0.35246350348255384
0.32072613257899496
0.2857723494912804
0.2484628323639841
0.2097162653319692
0.1704867174680465
0.1317401504360316
0.09443063330873529
0.0594768502210207
0.027739479317461818
1.3877787807814457e-16
-0.023058549688515312
-0.04086839172781387
-0.05299098869941141
-0.05912784203327423
-0.036069292344758946
-0.029932439010896095
-0.01780984203929864
-0.0
0.023058549688515312
0.05079802900597713
0.08253539990953582
0.11748918299725059
0.15479870012454666
0.19354526715656178
0.23277481502048425
0.27152138205249937
0.30883089917979545
0.34378468226751024
0.3755220531710689
0.4032615324885308
0.4263200821770461
0.44412992421634473
0.4562525211879422
0.46238937452180506
0.46238937452180506
0.45625252118794224
0.4441299242163448
0.4263200821770461
0.4032615324885308
0.37552205317106907
0.3437846822675102
0.3088308991797956
0.2715213820524993
0.23277481502048444
0.19354526715656173
0.15479870012454686
0.11748918299725054
0.08253539990953596
0.050798029005977074
0.023058549688515423
-2.7755575615628914e-17
-0.017809842039298585
-0.029932439010896122
-0.036069292344758946
-0.036069292344758946
-0.02993243901089615
-0.01780984203929864
-1.1102230246251565e-16
0.02305854968851534
0.05079802900597699
0.08253539990953587
0.11748918299725043
0.15479870012454672
0.19354526715656162
0.2327748150204843
0.2715213820524992
0.3088308991797955
0.34378468226751013
0.375522053171069
0.40326153248853064
0.4263200821770461
0.4441299242163447
0.45625252118794224
0.46238937452180506
0.46238937452180506
0.45625252118794224
0.44412992421634473
0.4263200821770462
0.4032615324885308
0.3755220531710691
0.34378468226751024
0.30883089917979567
0.27152138205249937
0.2327748150204845
0.1935452671565618
0.1547987001245469
0.1174891829972506
0.08253539990953601
0.05079802900597713
0.02305854968851545
-0.0
-0.017809842039298557
-0.029932439010896095
-0.03606929234475892
-0.018259450305460306
-0.012122596971597455
-0.0
0.01780984203929864
0.04086839172781395
0.06860787104527577
0.10034524194883446
0.13529902503654923
0.1726085421638453
0.21135510919586042
0.2505846570597829
0.289331224091798
0.32664074121909414
0.3615945243068089
0.3933318952103676
0.4210713745278294
0.44412992421634473
0.46193976625564337
0.4740623632272408
0.48019921656110365
0.48019921656110365
0.4740623632272408
0.46193976625564337
0.4441299242163448
0.42107137452782945
0.3933318952103677
0.36159452430680883
0.32664074121909425
0.28933122409179796
0.25058465705978306
0.21135510919586037
0.1726085421638455
0.13529902503654917
0.1003452419488346
0.06860787104527571
0.04086839172781406
0.017809842039298612
5.551115123125783e-17
-0.012122596971597482
-0.018259450305460306
-0.018259450305460306
-0.01212259697159751
-0.0
0.01780984203929853
0.04086839172781398
0.06860787104527563
0.10034524194883451
0.13529902503654906
0.17260854216384536
0.21135510919586026
0.25058465705978294
0.28933122409179785
0.32664074121909414
0.3615945243068087
0.3933318952103676
0.4210713745278293
0.4441299242163448
0.46193976625564326
0.4740623632272408
0.48019921656110365
0.48019921656110365
0.4740623632272409
0.46193976625564337
0.44412992421634484
0.4210713745278294
0.39333189521036777
0.3615945243068089
0.3266407412190943
0.289331224091798
0.25058465705978317
0.21135510919586045
0.17260854216384555
0.13529902503654923
0.10034524194883465
0.06860787104527577
0.04086839172781409
0.01780984203929864
8.326672684688674e-17
-0.012122596971597455
-0.01825945030546028
-0.006136853333862852
-0.0
0.012122596971597455
0.029932439010896095
0.05299098869941141
0.08073046801687322
0.11246783892043191
0.14742162200814668
0.18473113913544276
0.22347770616745788
0.26270725403138034
0.30145382106339547
0.3387633381906916
0.37371712127840634
0.40545449218196505
0.43319397149942684
0.4562525211879422
0.4740623632272408
0.4861849601988383
0.4923218135327011
0.4923218135327011
0.4861849601988383
0.4740623632272408
0.45625252118794224
0.4331939714994269
0.40545449218196516
0.3737171212784063
0.3387633381906917
0.3014538210633954
0.2627072540313805
0.22347770616745782
0.18473113913544295
0.14742162200814662
0.11246783892043205
0.08073046801687317