FoamFile { version 2.0; format ascii; class volVectorField; object U; }
dimensions [0 1 -1 0 0 0 0];
internalField nonuniform List<vector> 6400(
(-0.0392295478639 0.0392295478639 0)
(-0.0389876846562 0.117446780384 0)
(-0.0385054494078 0.194939914448 0)
(-0.0377858152595 0.271231179115 0)
(-0.0368332189951 0.34585021337 0)
(-0.0356535336872 0.418336966052 0)
(-0.0342540324882 0.488244532228 0)
(-0.0326433437883 0.555141908504 0)
(-0.0308313980189 0.618616650311 0)
(-0.0288293664282 0.678277414758 0)
(-0.0266495922067 0.733756373393 0)
(-0.0243055143875 0.784711479987 0)
(-0.0218115849896 0.830828579365 0)
(-0.0191831799171 0.871823344271 0)
(-0.0164365041615 0.90744302835 0)
(-0.0135884918919 0.937468024403 0)
(-0.0106567020513 0.961713218346 0)
(-0.00765921009873 0.980029130496 0)
(-0.004614496569 0.992302837164 0)
(-0.00154133313344 0.998458666867 0)
(0.00154133313344 0.998458666867 0)
(0.004614496569 0.992302837164 0)
(0.00765921009873 0.980029130496 0)
(0.0106567020513 0.961713218346 0)
(0.0135884918919 0.937468024403 0)
(0.0164365041615 0.90744302835 0)
(0.0191831799171 0.871823344271 0)
(0.0218115849896 0.830828579365 0)
(0.0243055143875 0.784711479987 0)
(0.0266495922067 0.733756373393 0)
(0.0288293664282 0.678277414758 0)
(0.0308313980189 0.618616650311 0)
(0.0326433437883 0.555141908504 0)
(0.0342540324882 0.488244532228 0)
(0.0356535336872 0.418336966052 0)
(0.0368332189951 0.34585021337 0)
(0.0377858152595 0.271231179115 0)
(0.0385054494078 0.194939914448 0)
(0.0389876846562 0.117446780384 0)
(0.0392295478639 0.0392295478639 0)
(0.0392295478639 -0.0392295478639 0)
(0.0389876846562 -0.117446780384 0)
(0.0385054494078 -0.194939914448 0)
(0.0377858152595 -0.271231179115 0)
(0.0368332189951 -0.34585021337 0)
(0.0356535336872 -0.418336966052 0)
(0.0342540324882 -0.488244532228 0)
(0.0326433437883 -0.555141908504 0)
(0.0308313980189 -0.618616650311 0)
(0.0288293664282 -0.678277414758 0)
(0.0266495922067 -0.733756373393 0)
(0.0243055143875 -0.784711479987 0)
(0.0218115849896 -0.830828579365 0)
(0.0191831799171 -0.871823344271 0)
(0.0164365041615 -0.90744302835 0)
(0.0135884918919 -0.937468024403 0)
(0.0106567020513 -0.961713218346 0)
(0.00765921009873 -0.980029130496 0)
(0.004614496569 -0.992302837164 0)
(0.00154133313344 -0.998458666867 0)
(-0.00154133313344 -0.998458666867 0)
(-0.004614496569 -0.992302837164 0)
(-0.00765921009873 -0.980029130496 0)
(-0.0106567020513 -0.961713218346 0)
(-0.0135884918919 -0.937468024403 0)
(-0.0164365041615 -0.90744302835 0)
(-0.0191831799171 -0.871823344271 0)
(-0.0218115849896 -0.830828579365 0)
(-0.0243055143875 -0.784711479987 0)
(-0.0266495922067 -0.733756373393 0)
(-0.0288293664282 -0.678277414758 0)
(-0.0308313980189 -0.618616650311 0)
(-0.0326433437883 -0.555141908504 0)
(-0.0342540324882 -0.488244532228 0)
(-0.0356535336872 -0.418336966052 0)
(-0.0368332189951 -0.34585021337 0)
(-0.0377858152595 -0.271231179115 0)
(-0.0385054494078 -0.194939914448 0)
(-0.0389876846562 -0.117446780384 0)
(-0.0392295478639 -0.0392295478639 0)
(-0.117446780384 0.0389876846562 0)
(-0.116722681928 0.116722681928 0)
(-0.115278949324 0.193738045051 0)
(-0.113124483662 0.269558948703 0)
(-0.110272567942 0.343717931798 0)
(-0.106740785171 0.415757779545 0)
(-0.102550909964 0.485234342329 0)
(-0.0977287742953 0.551719274035 0)
(-0.0923041082353 0.614802672951 0)
(-0.0863103566538 0.674095608946 0)
(-0.0797844730224 0.729232521353 0)
(-0.0727666915838 0.77987347277 0)
(-0.0653002792942 0.825706244894 0)
(-0.0574312690682 0.866448263443 0)
(-0.0492081759705 0.901848340325 0)
(-0.0406816981047 0.931688222293 0)
(-0.0319044040419 0.955783936553 0)
(-0.022930408719 0.973986925014 0)
(-0.0138150398012 0.986184960199 0)
(-0.004614496569 0.992302837164 0)
(0.004614496569 0.992302837164 0)
(0.0138150398012 0.986184960199 0)
(0.022930408719 0.973986925014 0)
(0.0319044040419 0.955783936553 0)
(0.0406816981047 0.931688222293 0)
(0.0492081759705 0.901848340325 0)
(0.0574312690682 0.866448263443 0)
(0.0653002792942 0.825706244894 0)
(0.0727666915838 0.77987347277 0)
(0.0797844730224 0.729232521353 0)
(0.0863103566538 0.674095608946 0)
(0.0923041082353 0.614802672951 0)
(0.0977287742953 0.551719274035 0)
(0.102550909964 0.485234342329 0)
(0.106740785171 0.415757779545 0)
(0.110272567942 0.343717931798 0)
(0.113124483662 0.269558948703 0)
(0.115278949324 0.193738045051 0)
(0.116722681928 0.116722681928 0)
(0.117446780384 0.0389876846562 0)
(0.117446780384 -0.0389876846562 0)
(0.116722681928 -0.116722681928 0)
(0.115278949324 -0.193738045051 0)
(0.113124483662 -0.269558948703 0)
(0.110272567942 -0.343717931798 0)
(0.106740785171 -0.415757779545 0)
(0.102550909964 -0.485234342329 0)
(0.0977287742953 -0.551719274035 0)
(0.0923041082353 -0.614802672951 0)
(0.0863103566538 -0.674095608946 0)
(0.0797844730224 -0.729232521353 0)
(0.0727666915838 -0.77987347277 0)
(0.0653002792942 -0.825706244894 0)
(0.0574312690682 -0.866448263443 0)
(0.0492081759705 -0.901848340325 0)
(0.0406816981047 -0.931688222293 0)
(0.0319044040419 -0.955783936553 0)
(0.022930408719 -0.973986925014 0)
(0.0138150398012 -0.986184960199 0)
(0.004614496569 -0.992302837164 0)
(-0.004614496569 -0.992302837164 0)
(-0.0138150398012 -0.986184960199 0)
(-0.022930408719 -0.973986925014 0)
(-0.0319044040419 -0.955783936553 0)
(-0.0406816981047 -0.931688222293 0)
(-0.0492081759705 -0.901848340325 0)
(-0.0574312690682 -0.866448263443 0)
(-0.0653002792942 -0.825706244894 0)
(-0.0727666915838 -0.77987347277 0)
(-0.0797844730224 -0.729232521353 0)
(-0.0863103566538 -0.674095608946 0)
(-0.0923041082353 -0.614802672951 0)
(-0.0977287742953 -0.551719274035 0)
(-0.102550909964 -0.485234342329 0)
(-0.106740785171 -0.415757779545 0)
(-0.110272567942 -0.343717931798 0)
(-0.113124483662 -0.269558948703 0)
(-0.115278949324 -0.193738045051 0)
(-0.116722681928 -0.116722681928 0)
(-0.117446780384 -0.0389876846562 0)
(-0.194939914448 0.0385054494078 0)
(-0.193738045051 0.115278949324 0)
(-0.191341716183 0.191341716183 0)
(-0.187765702006 0.266224797734 0)
(-0.183032049838 0.339466514878 0)
(-0.177169944218 0.410615308074 0)
(-0.170215526978 0.479232521353 0)
(-0.162211674411 0.544895106776 0)
(-0.15320773293 0.60719823267 0)
(-0.143259214829 0.665757779545 0)
(-0.132427456031 0.720212708323 0)
(-0.120779237929 0.770227286259 0)
(-0.108386375662 0.815493156849 0)
(-0.0953252753476 0.855731240948 0)
(-0.0816764630114 0.890693457386 0)
(-0.0675240881205 0.920164252475 0)
(-0.0529554047724 0.943961928961 0)
(-0.0380602337444 0.961939766256 0)
(-0.022930408719 0.973986925014 0)
(-0.00765921009873 0.980029130496 0)
(0.00765921009873 0.980029130496 0)
(0.022930408719 0.973986925014 0)
(0.0380602337444 0.961939766256 0)
(0.0529554047724 0.943961928961 0)
(0.0675240881205 0.920164252475 0)
(0.0816764630114 0.890693457386 0)
(0.0953252753476 0.855731240948 0)
(0.108386375662 0.815493156849 0)
(0.120779237929 0.770227286259 0)
(0.132427456031 0.720212708323 0)
(0.143259214829 0.665757779545 0)
(0.15320773293 0.60719823267 0)
(0.162211674411 0.544895106776 0)
(0.170215526978 0.479232521353 0)
(0.177169944218 0.410615308074 0)
(0.183032049838 0.339466514878 0)
(0.187765702006 0.266224797734 0)
(0.191341716183 0.191341716183 0)
(0.193738045051 0.115278949324 0)
(0.194939914448 0.0385054494078 0)
(0.194939914448 -0.0385054494078 0)
(0.193738045051 -0.115278949324 0)
(0.191341716183 -0.191341716183 0)
(0.187765702006 -0.266224797734 0)
(0.183032049838 -0.339466514878 0)
(0.177169944218 -0.410615308074 0)
(0.170215526978 -0.479232521353 0)
(0.162211674411 -0.544895106776 0)
(0.15320773293 -0.60719823267 0)
(0.143259214829 -0.665757779545 0)
(0.132427456031 -0.720212708323 0)
(0.120779237929 -0.770227286259 0)
(0.108386375662 -0.815493156849 0)
(0.0953252753476 -0.855731240948 0)
(0.0816764630114 -0.890693457386 0)
(0.0675240881205 -0.920164252475 0)
(0.0529554047724 -0.943961928961 0)
(0.0380602337444 -0.961939766256 0)
(0.022930408719 -0.973986925014 0)
(0.00765921009873 -0.980029130496 0)
(-0.00765921009873 -0.980029130496 0)
(-0.022930408719 -0.973986925014 0)
(-0.0380602337444 -0.961939766256 0)
(-0.0529554047724 -0.943961928961 0)
(-0.0675240881205 -0.920164252475 0)
(-0.0816764630114 -0.890693457386 0)
(-0.0953252753476 -0.855731240948 0)
(-0.108386375662 -0.815493156849 0)
(-0.120779237929 -0.770227286259 0)
(-0.132427456031 -0.720212708323 0)
(-0.143259214829 -0.665757779545 0)
(-0.15320773293 -0.60719823267 0)
(-0.162211674411 -0.544895106776 0)
(-0.170215526978 -0.479232521353 0)
(-0.177169944218 -0.410615308074 0)
(-0.183032049838 -0.339466514878 0)
(-0.187765702006 -0.266224797734 0)
(-0.191341716183 -0.191341716183 0)
(-0.193738045051 -0.115278949324 0)
(-0.194939914448 -0.0385054494078 0)
(-0.271231179115 0.0377858152595 0)
(-0.269558948703 0.113124483662 0)
(-0.266224797734 0.187765702006 0)
(-0.261249282358 0.261249282358 0)
(-0.254663078282 0.33312217401 0)
(-0.246506791645 0.402941256685 0)
(-0.236830708665 0.470276072521 0)
(-0.225694485613 0.534711479987 0)
(-0.213166781005 0.59585021337 0)
(-0.199324832307 0.653315332047 0)
(-0.184253979736 0.706752544452 0)
(-0.168047140109 0.755832392402 0)
(-0.150804233982 0.800252282313 0)
(-0.132631569606 0.839738350792 0)
(-0.113641187498 0.874047153098 0)
(-0.0939501696791 0.902967164054 0)
(-0.073679917823 0.926320082177 0)
(-0.0529554047724 0.943961928961 0)
(-0.0319044040419 0.955783936553 0)
(-0.0106567020513 0.961713218346 0)
(0.0106567020513 0.961713218346 0)
(0.0319044040419 0.955783936553 0)
(0.0529554047724 0.943961928961 0)
(0.073679917823 0.926320082177 0)
(0.0939501696791 0.902967164054 0)
(0.113641187498 0.874047153098 0)
(0.132631569606 0.839738350792 0)
(0.150804233982 0.800252282313 0)
(0.168047140109 0.755832392402 0)
(0.184253979736 0.706752544452 0)
(0.199324832307 0.653315332047 0)
(0.213166781005 0.59585021337 0)
(0.225694485613 0.534711479987 0)
(0.236830708665 0.470276072521 0)
(0.246506791645 0.402941256685 0)
(0.254663078282 0.33312217401 0)
(0.261249282358 0.261249282358 0)
(0.266224797734 0.187765702006 0)
(0.269558948703 0.113124483662 0)
(0.271231179115 0.0377858152595 0)
(0.271231179115 -0.0377858152595 0)
(0.269558948703 -0.113124483662 0)
(0.266224797734 -0.187765702006 0)
(0.261249282358 -0.261249282358 0)
(0.254663078282 -0.33312217401 0)
(0.246506791645 -0.402941256685 0)
(0.236830708665 -0.470276072521 0)
(0.225694485613 -0.534711479987 0)
(0.213166781005 -0.59585021337 0)
(0.199324832307 -0.653315332047 0)
(0.184253979736 -0.706752544452 0)
(0.168047140109 -0.755832392402 0)
(0.150804233982 -0.800252282313 0)
(0.132631569606 -0.839738350792 0)
(0.113641187498 -0.874047153098 0)
(0.0939501696791 -0.902967164054 0)
(0.073679917823 -0.926320082177 0)
(0.0529554047724 -0.943961928961 0)
(0.0319044040419 -0.955783936553 0)
(0.0106567020513 -0.961713218346 0)
(-0.0106567020513 -0.961713218346 0)
(-0.0319044040419 -0.955783936553 0)
(-0.0529554047724 -0.943961928961 0)
(-0.073679917823 -0.926320082177 0)
(-0.0939501696791 -0.902967164054 0)
(-0.113641187498 -0.874047153098 0)
(-0.132631569606 -0.839738350792 0)
(-0.150804233982 -0.800252282313 0)
(-0.168047140109 -0.755832392402 0)
(-0.184253979736 -0.706752544452 0)
(-0.199324832307 -0.653315332047 0)
(-0.213166781005 -0.59585021337 0)
(-0.225694485613 -0.534711479987 0)
(-0.236830708665 -0.470276072521 0)
(-0.246506791645 -0.402941256685 0)
(-0.254663078282 -0.33312217401 0)
(-0.261249282358 -0.261249282358 0)
(-0.266224797734 -0.187765702006 0)
(-0.269558948703 -0.113124483662 0)
(-0.271231179115 -0.0377858152595 0)
(-0.34585021337 0.0368332189951 0)
(-0.343717931798 0.110272567942 0)
(-0.339466514878 0.183032049838 0)
(-0.33312217401 0.254663078282 0)
(-0.324724024165 0.324724024165 0)
(-0.314323842729 0.392782938457 0)
(-0.30198575028 0.45842021532 0)
(-0.28778581526 0.521231179115 0)
(-0.27181158499 0.580828579365 0)
(-0.254161545912 0.636844978277 0)
(-0.234944516386 0.688935016125 0)
(-0.21427897579 0.736777540506 0)
(-0.192292334053 0.780077586345 0)
(-0.169120146132 0.818568194463 0)
(-0.144905276273 0.85201205746 0)
(-0.1197970172 0.8802029828 0)
(-0.0939501696791 0.902967164054 0)
(-0.0675240881205 0.920164252475 0)
(-0.0406816981047 0.931688222293 0)
(-0.0135884918919 0.937468024403 0)
(0.0135884918919 0.937468024403 0)
(0.0406816981047 0.931688222293 0)
(0.0675240881205 0.920164252475 0)
(0.0939501696791 0.902967164054 0)
(0.1197970172 0.8802029828 0)
(0.144905276273 0.85201205746 0)
(0.169120146132 0.818568194463 0)
(0.192292334053 0.780077586345 0)
(0.21427897579 0.736777540506 0)
(0.234944516386 0.688935016125 0)
(0.254161545912 0.636844978277 0)
(0.27181158499 0.580828579365 0)
(0.28778581526 0.521231179115 0)
(0.30198575028 0.45842021532 0)
(0.314323842729 0.392782938457 0)
(0.324724024165 0.324724024165 0)
(0.33312217401 0.254663078282 0)
(0.339466514878 0.183032049838 0)
(0.343717931798 0.110272567942 0)
(0.34585021337 0.0368332189951 0)
(0.34585021337 -0.0368332189951 0)
(0.343717931798 -0.110272567942 0)
(0.339466514878 -0.183032049838 0)
(0.33312217401 -0.254663078282 0)
(0.324724024165 -0.324724024165 0)
(0.314323842729 -0.392782938457 0)
(0.30198575028 -0.45842021532 0)
(0.28778581526 -0.521231179115 0)
(0.27181158499 -0.580828579365 0)
(0.254161545912 -0.636844978277 0)
(0.234944516386 -0.688935016125 0)
(0.21427897579 -0.736777540506 0)
(0.192292334053 -0.780077586345 0)
(0.169120146132 -0.818568194463 0)
(0.144905276273 -0.85201205746 0)
(0.1197970172 -0.8802029828 0)
(0.0939501696791 -0.902967164054 0)
(0.0675240881205 -0.920164252475 0)
(0.0406816981047 -0.931688222293 0)
(0.0135884918919 -0.937468024403 0)
(-0.0135884918919 -0.937468024403 0)
(-0.0406816981047 -0.931688222293 0)
(-0.0675240881205 -0.920164252475 0)
(-0.0939501696791 -0.902967164054 0)
(-0.1197970172 -0.8802029828 0)
(-0.144905276273 -0.85201205746 0)
(-0.169120146132 -0.818568194463 0)
(-0.192292334053 -0.780077586345 0)
(-0.21427897579 -0.736777540506 0)
(-0.234944516386 -0.688935016125 0)
(-0.254161545912 -0.636844978277 0)
(-0.27181158499 -0.580828579365 0)
(-0.28778581526 -0.521231179115 0)
(-0.30198575028 -0.45842021532 0)
(-0.314323842729 -0.392782938457 0)
(-0.324724024165 -0.324724024165 0)
(-0.33312217401 -0.254663078282 0)
(-0.339466514878 -0.183032049838 0)
(-0.343717931798 -0.110272567942 0)
(-0.34585021337 -0.0368332189951 0)
(-0.418336966052 0.0356535336872 0)
(-0.415757779545 0.106740785171 0)
(-0.410615308074 0.177169944218 0)
(-0.402941256685 0.246506791645 0)
(-0.392782938457 0.314323842729 0)
(-0.3802029828 0.3802029828 0)
(-0.365278949324 0.443738045051 0)
(-0.348102849657 0.504537314697 0)
(-0.328780580166 0.562225944022 0)
(-0.307431269068 0.616448263443 0)
(-0.284186541965 0.66686997433 0)
(-0.259189710329 0.713180210069 0)
(-0.23259488794 0.755093452656 0)
(-0.20456604072 0.792351293013 0)
(-0.175275975835 0.824724024165 0)
(-0.144905276273 0.85201205746 0)
(-0.113641187498 0.874047153098 0)
(-0.0816764630114 0.890693457386 0)
(-0.0492081759705 0.901848340325 0)
(-0.0164365041615 0.90744302835 0)
(0.0164365041615 0.90744302835 0)
(0.0492081759705 0.901848340325 0)
(0.0816764630114 0.890693457386 0)
(0.113641187498 0.874047153098 0)
(0.144905276273 0.85201205746 0)
(0.175275975835 0.824724024165 0)
(0.20456604072 0.792351293013 0)
(0.23259488794 0.755093452656 0)
(0.259189710329 0.713180210069 0)
(0.284186541965 0.66686997433 0)
(0.307431269068 0.616448263443 0)
(0.328780580166 0.562225944022 0)
(0.348102849657 0.504537314697 0)
(0.365278949324 0.443738045051 0)
(0.3802029828 0.3802029828 0)
(0.392782938457 0.314323842729 0)
(0.402941256685 0.246506791645 0)
(0.410615308074 0.177169944218 0)
(0.415757779545 0.106740785171 0)
(0.418336966052 0.0356535336872 0)
(0.418336966052 -0.0356535336872 0)
(0.415757779545 -0.106740785171 0)
(0.410615308074 -0.177169944218 0)
(0.402941256685 -0.246506791645 0)
(0.392782938457 -0.314323842729 0)
(0.3802029828 -0.3802029828 0)
(0.365278949324 -0.443738045051 0)
(0.348102849657 -0.504537314697 0)
(0.328780580166 -0.562225944022 0)
(0.307431269068 -0.616448263443 0)
(0.284186541965 -0.66686997433 0)
(0.259189710329 -0.713180210069 0)
(0.23259488794 -0.755093452656 0)
(0.20456604072 -0.792351293013 0)
(0.175275975835 -0.824724024165 0)
(0.144905276273 -0.85201205746 0)
(0.113641187498 -0.874047153098 0)
(0.0816764630114 -0.890693457386 0)
(0.0492081759705 -0.901848340325 0)
(0.0164365041615 -0.90744302835 0)
(-0.0164365041615 -0.90744302835 0)
(-0.0492081759705 -0.901848340325 0)
(-0.0816764630114 -0.890693457386 0)
(-0.113641187498 -0.874047153098 0)
(-0.144905276273 -0.85201205746 0)
(-0.175275975835 -0.824724024165 0)
(-0.20456604072 -0.792351293013 0)
(-0.23259488794 -0.755093452656 0)
(-0.259189710329 -0.713180210069 0)
(-0.284186541965 -0.66686997433 0)
(-0.307431269068 -0.616448263443 0)
(-0.328780580166 -0.562225944022 0)
(-0.348102849657 -0.504537314697 0)
(-0.365278949324 -0.443738045051 0)
(-0.3802029828 -0.3802029828 0)
(-0.392782938457 -0.314323842729 0)
(-0.402941256685 -0.246506791645 0)
(-0.410615308074 -0.177169944218 0)
(-0.415757779545 -0.106740785171 0)
(-0.418336966052 -0.0356535336872 0)
(-0.488244532228 0.0342540324882 0)
(-0.485234342329 0.102550909964 0)
(-0.479232521353 0.170215526978 0)
(-0.470276072521 0.236830708665 0)
(-0.45842021532 0.30198575028 0)
(-0.443738045051 0.365278949324 0)
(-0.426320082177 0.426320082177 0)
(-0.40627371423 0.484732809958 0)
(-0.383722533736 0.540156998776 0)
(-0.35880557622 0.592250940076 0)
(-0.331676463011 0.640693457386 0)
(-0.302502454115 0.68518588648 0)
(-0.271463416997 0.725453916736 0)
(-0.238750717642 0.761249282358 0)
(-0.20456604072 0.792351293013 0)
(-0.169120146132 0.818568194463 0)
(-0.132631569606 0.839738350792 0)
(-0.0953252753476 0.855731240948 0)
(-0.0574312690682 0.866448263443 0)
(-0.0191831799171 0.871823344271 0)
(0.0191831799171 0.871823344271 0)
(0.0574312690682 0.866448263443 0)
(0.0953252753476 0.855731240948 0)
(0.132631569606 0.839738350792 0)
(0.169120146132 0.818568194463 0)
(0.20456604072 0.792351293013 0)
(0.238750717642 0.761249282358 0)
(0.271463416997 0.725453916736 0)
(0.302502454115 0.68518588648 0)
(0.331676463011 0.640693457386 0)
(0.35880557622 0.592250940076 0)
(0.383722533736 0.540156998776 0)
(0.40627371423 0.484732809958 0)
(0.426320082177 0.426320082177 0)
(0.443738045051 0.365278949324 0)
(0.45842021532 0.30198575028 0)
(0.470276072521 0.236830708665 0)
(0.479232521353 0.170215526978 0)
(0.485234342329 0.102550909964 0)
(0.488244532228 0.0342540324882 0)
(0.488244532228 -0.0342540324882 0)
(0.485234342329 -0.102550909964 0)
(0.479232521353 -0.170215526978 0)
(0.470276072521 -0.236830708665 0)
(0.45842021532 -0.30198575028 0)
(0.443738045051 -0.365278949324 0)
(0.426320082177 -0.426320082177 0)
(0.40627371423 -0.484732809958 0)
(0.383722533736 -0.540156998776 0)
(0.35880557622 -0.592250940076 0)
(0.331676463011 -0.640693457386 0)
(0.302502454115 -0.68518588648 0)
(0.271463416997 -0.725453916736 0)
(0.238750717642 -0.761249282358 0)
(0.20456604072 -0.792351293013 0)
(0.169120146132 -0.818568194463 0)
(0.132631569606 -0.839738350792 0)
(0.0953252753476 -0.855731240948 0)
(0.0574312690682 -0.866448263443 0)
(0.0191831799171 -0.871823344271 0)
(-0.0191831799171 -0.871823344271 0)
(-0.0574312690682 -0.866448263443 0)
(-0.0953252753476 -0.855731240948 0)
(-0.132631569606 -0.839738350792 0)
(-0.169120146132 -0.818568194463 0)
(-0.20456604072 -0.792351293013 0)
(-0.238750717642 -0.761249282358 0)
(-0.271463416997 -0.725453916736 0)
(-0.302502454115 -0.68518588648 0)
(-0.331676463011 -0.640693457386 0)
(-0.35880557622 -0.592250940076 0)
(-0.383722533736 -0.540156998776 0)
(-0.40627371423 -0.484732809958 0)
(-0.426320082177 -0.426320082177 0)
(-0.443738045051 -0.365278949324 0)
(-0.45842021532 -0.30198575028 0)
(-0.470276072521 -0.236830708665 0)
(-0.479232521353 -0.170215526978 0)
(-0.485234342329 -0.102550909964 0)
(-0.488244532228 -0.0342540324882 0)
(-0.555141908504 0.0326433437883 0)
(-0.551719274035 0.0977287742953 0)
(-0.544895106776 0.162211674411 0)
(-0.534711479987 0.225694485613 0)
(-0.521231179115 0.28778581526 0)
(-0.504537314697 0.348102849657 0)
(-0.484732809958 0.40627371423 0)
(-0.461939766256 0.461939766256 0)
(-0.436298710284 0.514757806011 0)
(-0.407967727679 0.564402192719 0)
(-0.37712148837 0.610566852226 0)
(-0.343950169679 0.652967164054 0)
(-0.308658283817 0.691341716183 0)
(-0.271463416997 0.725453916736 0)
(-0.23259488794 0.755093452656 0)
(-0.192292334053 0.780077586345 0)
(-0.150804233982 0.800252282313 0)
(-0.108386375662 0.815493156849 0)
(-0.0653002792942 0.825706244894 0)
(-0.0218115849896 0.830828579365 0)
(0.0218115849896 0.830828579365 0)
(0.0653002792942 0.825706244894 0)
(0.108386375662 0.815493156849 0)
(0.150804233982 0.800252282313 0)
(0.192292334053 0.780077586345 0)
(0.23259488794 0.755093452656 0)
(0.271463416997 0.725453916736 0)
(0.308658283817 0.691341716183 0)
(0.343950169679 0.652967164054 0)
(0.37712148837 0.610566852226 0)
(0.407967727679 0.564402192719 0)
(0.436298710284 0.514757806011 0)
(0.461939766256 0.461939766256 0)
(0.484732809958 0.40627371423 0)
(0.504537314697 0.348102849657 0)
(0.521231179115 0.28778581526 0)
(0.534711479987 0.225694485613 0)
(0.544895106776 0.162211674411 0)
(0.551719274035 0.0977287742953 0)
(0.555141908504 0.0326433437883 0)
(0.555141908504 -0.0326433437883 0)
(0.551719274035 -0.0977287742953 0)
(0.544895106776 -0.162211674411 0)
(0.534711479987 -0.225694485613 0)
(0.521231179115 -0.28778581526 0)
(0.504537314697 -0.348102849657 0)
(0.484732809958 -0.40627371423 0)
(0.461939766256 -0.461939766256 0)
(0.436298710284 -0.514757806011 0)
(0.407967727679 -0.564402192719 0)
(0.37712148837 -0.610566852226 0)
(0.343950169679 -0.652967164054 0)
(0.308658283817 -0.691341716183 0)
(0.271463416997 -0.725453916736 0)
(0.23259488794 -0.755093452656 0)
(0.192292334053 -0.780077586345 0)
(0.150804233982 -0.800252282313 0)
(0.108386375662 -0.815493156849 0)
(0.0653002792942 -0.825706244894 0)
(0.0218115849896 -0.830828579365 0)
(-0.0218115849896 -0.830828579365 0)
(-0.0653002792942 -0.825706244894 0)
(-0.108386375662 -0.815493156849 0)
(-0.150804233982 -0.800252282313 0)
(-0.192292334053 -0.780077586345 0)
(-0.23259488794 -0.755093452656 0)
(-0.271463416997 -0.725453916736 0)
(-0.308658283817 -0.691341716183 0)
(-0.343950169679 -0.652967164054 0)
(-0.37712148837 -0.610566852226 0)
(-0.407967727679 -0.564402192719 0)
(-0.436298710284 -0.514757806011 0)
(-0.461939766256 -0.461939766256 0)
(-0.484732809958 -0.40627371423 0)
(-0.504537314697 -0.348102849657 0)
(-0.521231179115 -0.28778581526 0)
(-0.534711479987 -0.225694485613 0)
(-0.544895106776 -0.162211674411 0)
(-0.551719274035 -0.0977287742953 0)
(-0.555141908504 -0.0326433437883 0)
(-0.618616650311 0.0308313980189 0)
(-0.614802672951 0.0923041082353 0)
(-0.60719823267 0.15320773293 0)
(-0.59585021337 0.213166781005 0)
(-0.580828579365 0.27181158499 0)
(-0.562225944022 0.328780580166 0)
(-0.540156998776 0.383722533736 0)
(-0.514757806011 0.436298710284 0)
(-0.486184960199 0.486184960199 0)
(-0.454614622434 0.533073718161 0)
(-0.420241434346 0.576675899387 0)
(-0.383277318072 0.616722681928 0)
(-0.343950169679 0.652967164054 0)
(-0.302502454115 0.68518588648 0)
(-0.259189710329 0.713180210069 0)
(-0.21427897579 0.736777540506 0)
(-0.168047140109 0.755832392402 0)
(-0.120779237929 0.770227286259 0)
(-0.0727666915838 0.77987347277 0)
(-0.0243055143875 0.784711479987 0)
(0.0243055143875 0.784711479987 0)
(0.0727666915838 0.77987347277 0)
(0.120779237929 0.770227286259 0)
(0.168047140109 0.755832392402 0)
(0.21427897579 0.736777540506 0)
(0.259189710329 0.713180210069 0)
(0.302502454115 0.68518588648 0)
(0.343950169679 0.652967164054 0)
(0.383277318072 0.616722681928 0)
(0.420241434346 0.576675899387 0)
(0.454614622434 0.533073718161 0)
(0.486184960199 0.486184960199 0)
(0.514757806011 0.436298710284 0)
(0.540156998776 0.383722533736 0)
(0.562225944022 0.328780580166 0)
(0.580828579365 0.27181158499 0)
(0.59585021337 0.213166781005 0)
(0.60719823267 0.15320773293 0)
(0.614802672951 0.0923041082353 0)
(0.618616650311 0.0308313980189 0)
(0.618616650311 -0.0308313980189 0)
(0.614802672951 -0.0923041082353 0)
(0.60719823267 -0.15320773293 0)
(0.59585021337 -0.213166781005 0)
(0.580828579365 -0.27181158499 0)
(0.562225944022 -0.328780580166 0)
(0.540156998776 -0.383722533736 0)
(0.514757806011 -0.436298710284 0)
(0.486184960199 -0.486184960199 0)
(0.454614622434 -0.533073718161 0)
(0.420241434346 -0.576675899387 0)
(0.383277318072 -0.616722681928 0)
(0.343950169679 -0.652967164054 0)
(0.302502454115 -0.68518588648 0)
(0.259189710329 -0.713180210069 0)
(0.21427897579 -0.736777540506 0)
(0.168047140109 -0.755832392402 0)
(0.120779237929 -0.770227286259 0)
(0.0727666915838 -0.77987347277 0)
(0.0243055143875 -0.784711479987 0)
(-0.0243055143875 -0.784711479987 0)
(-0.0727666915838 -0.77987347277 0)
(-0.120779237929 -0.770227286259 0)
(-0.168047140109 -0.755832392402 0)
(-0.21427897579 -0.736777540506 0)
(-0.259189710329 -0.713180210069 0)
(-0.302502454115 -0.68518588648 0)
(-0.343950169679 -0.652967164054 0)
(-0.383277318072 -0.616722681928 0)
(-0.420241434346 -0.576675899387 0)
(-0.454614622434 -0.533073718161 0)
(-0.486184960199 -0.486184960199 0)
(-0.514757806011 -0.436298710284 0)
(-0.540156998776 -0.383722533736 0)
(-0.562225944022 -0.328780580166 0)
(-0.580828579365 -0.27181158499 0)
(-0.59585021337 -0.213166781005 0)
(-0.60719823267 -0.15320773293 0)
(-0.614802672951 -0.0923041082353 0)
(-0.618616650311 -0.0308313980189 0)
(-0.678277414758 0.0288293664282 0)
(-0.674095608946 0.0863103566538 0)
(-0.665757779545 0.143259214829 0)
(-0.653315332047 0.199324832307 0)
(-0.636844978277 0.254161545912 0)
(-0.616448263443 0.307431269068 0)
(-0.592250940076 0.35880557622 0)
(-0.564402192719 0.407967727679 0)
(-0.533073718161 0.454614622434 0)
(-0.498458666867 0.498458666867 0)
(-0.460770452136 0.539229547864 0)
(-0.420241434346 0.576675899387 0)
(-0.37712148837 0.610566852226 0)
(-0.331676463011 0.640693457386 0)
(-0.284186541965 0.66686997433 0)
(-0.234944516386 0.688935016125 0)
(-0.184253979736 0.706752544452 0)
(-0.132427456031 0.720212708323 0)
(-0.0797844730224 0.729232521353 0)
(-0.0266495922067 0.733756373393 0)
(0.0266495922067 0.733756373393 0)
(0.0797844730224 0.729232521353 0)
(0.132427456031 0.720212708323 0)
(0.184253979736 0.706752544452 0)
(0.234944516386 0.688935016125 0)
(0.284186541965 0.66686997433 0)
(0.331676463011 0.640693457386 0)
(0.37712148837 0.610566852226 0)
(0.420241434346 0.576675899387 0)
(0.460770452136 0.539229547864 0)
(0.498458666867 0.498458666867 0)
(0.533073718161 0.454614622434 0)
(0.564402192719 0.407967727679 0)
(0.592250940076 0.35880557622 0)
(0.616448263443 0.307431269068 0)
(0.636844978277 0.254161545912 0)
(0.653315332047 0.199324832307 0)
(0.665757779545 0.143259214829 0)
(0.674095608946 0.0863103566538 0)
(0.678277414758 0.0288293664282 0)
(0.678277414758 -0.0288293664282 0)
(0.674095608946 -0.0863103566538 0)
(0.665757779545 -0.143259214829 0)
(0.653315332047 -0.199324832307 0)
(0.636844978277 -0.254161545912 0)
(0.616448263443 -0.307431269068 0)
(0.592250940076 -0.35880557622 0)
(0.564402192719 -0.407967727679 0)
(0.533073718161 -0.454614622434 0)
(0.498458666867 -0.498458666867 0)
(0.460770452136 -0.539229547864 0)
(0.420241434346 -0.576675899387 0)
(0.37712148837 -0.610566852226 0)
(0.331676463011 -0.640693457386 0)
(0.284186541965 -0.66686997433 0)
(0.234944516386 -0.688935016125 0)
(0.184253979736 -0.706752544452 0)
(0.132427456031 -0.720212708323 0)
(0.0797844730224 -0.729232521353 0)
(0.0266495922067 -0.733756373393 0)
(-0.0266495922067 -0.733756373393 0)
(-0.0797844730224 -0.729232521353 0)
(-0.132427456031 -0.720212708323 0)
(-0.184253979736 -0.706752544452 0)
(-0.234944516386 -0.688935016125 0)
(-0.284186541965 -0.66686997433 0)
(-0.331676463011 -0.640693457386 0)
(-0.37712148837 -0.610566852226 0)
(-0.420241434346 -0.576675899387 0)
(-0.460770452136 -0.539229547864 0)
(-0.498458666867 -0.498458666867 0)
(-0.533073718161 -0.454614622434 0)
(-0.564402192719 -0.407967727679 0)
(-0.592250940076 -0.35880557622 0)
(-0.616448263443 -0.307431269068 0)
(-0.636844978277 -0.254161545912 0)
(-0.653315332047 -0.199324832307 0)
(-0.665757779545 -0.143259214829 0)
(-0.674095608946 -0.0863103566538 0)
(-0.678277414758 -0.0288293664282 0)
(-0.733756373393 0.0266495922067 0)
(-0.729232521353 0.0797844730224 0)
(-0.720212708323 0.132427456031 0)
(-0.706752544452 0.184253979736 0)
(-0.688935016125 0.234944516386 0)
(-0.66686997433 0.284186541965 0)
(-0.640693457386 0.331676463011 0)
(-0.610566852226 0.37712148837 0)
(-0.576675899387 0.420241434346 0)
(-0.539229547864 0.460770452136 0)
(-0.498458666867 0.498458666867 0)
(-0.454614622434 0.533073718161 0)
(-0.407967727679 0.564402192719 0)
(-0.35880557622 0.592250940076 0)
(-0.307431269068 0.616448263443 0)
(-0.254161545912 0.636844978277 0)
(-0.199324832307 0.653315332047 0)
(-0.143259214829 0.665757779545 0)
(-0.0863103566538 0.674095608946 0)
(-0.0288293664282 0.678277414758 0)
(0.0288293664282 0.678277414758 0)
(0.0863103566538 0.674095608946 0)
(0.143259214829 0.665757779545 0)
(0.199324832307 0.653315332047 0)
(0.254161545912 0.636844978277 0)
(0.307431269068 0.616448263443 0)
(0.35880557622 0.592250940076 0)
(0.407967727679 0.564402192719 0)
(0.454614622434 0.533073718161 0)
(0.498458666867 0.498458666867 0)
(0.539229547864 0.460770452136 0)
(0.576675899387 0.420241434346 0)
(0.610566852226 0.37712148837 0)
(0.640693457386 0.331676463011 0)
(0.66686997433 0.284186541965 0)
(0.688935016125 0.234944516386 0)
(0.706752544452 0.184253979736 0)
(0.720212708323 0.132427456031 0)
(0.729232521353 0.0797844730224 0)
(0.733756373393 0.0266495922067 0)
(0.733756373393 -0.0266495922067 0)
(0.729232521353 -0.0797844730224 0)
(0.720212708323 -0.132427456031 0)
(0.706752544452 -0.184253979736 0)
(0.688935016125 -0.234944516386 0)
(0.66686997433 -0.284186541965 0)
(0.640693457386 -0.331676463011 0)
(0.610566852226 -0.37712148837 0)
(0.576675899387 -0.420241434346 0)
(0.539229547864 -0.460770452136 0)